<?xml version="1.0" encoding="UTF-8"?>

<!-- generated on 2022-04-18 01:18:12 by Eclipse SUMO sumo Version 1.12.0
<configuration xmlns:xsi="http://www.w3.org/2001/XMLSchema-instance" xsi:noNamespaceSchemaLocation="http://sumo.dlr.de/xsd/sumoConfiguration.xsd">

    <input>
        <net-file value="C:\Users\hp\Sumo\2022-04-18-01-17-59\osm.net.xml"/>
        <route-files value="C:\Users\hp\Sumo\2022-04-18-01-17-59\trips.trips.xml"/>
        <additional-files value="C:\Users\hp\Sumo\2022-04-18-01-17-59\osm_stops.add.xml"/>
    </input>

    <output>
        <vehroute-output value="C:\Users\hp\Sumo\2022-04-18-01-17-59\vehroutes.xml"/>
        <stop-output value="C:\Users\hp\Sumo\2022-04-18-01-17-59\stopinfos.xml"/>
    </output>

    <time>
        <begin value="0"/>
    </time>

    <processing>
        <ignore-route-errors value="true"/>
    </processing>

    <routing>
        <device.rerouting.adaptation-interval value="0"/>
    </routing>

    <report>
        <aggregate-warnings value="5"/>
        <error-log value="C:\Users\hp\Sumo\2022-04-18-01-17-59\trips.trips.xml.errorlog"/>
        <no-step-log value="true"/>
    </report>

</configuration>
-->

<routes xmlns:xsi="http://www.w3.org/2001/XMLSchema-instance" xsi:noNamespaceSchemaLocation="http://sumo.dlr.de/xsd/routes_file.xsd">
    <vehicle id="1_bus_100:1" type="pt_bus" depart="15.00" departLane="1" arrival="201.00">
        <route edges="236092221#0 342968607#1 461526152#0 340498982#0 340498982#2 340498982#3 340498982#4 340498982#7 340498982#8 354528932#0 354528932#1"/>
        <stop busStop="3869306771" duration="30.00"/>
        <stop busStop="3870475228" duration="30.00"/>
    </vehicle>

    <vehicle id="7_subway_U6:0" type="pt_subway" depart="165.00" departLane="0" arrival="225.00">
        <route edges="295250353#0 295250353#1 295250353#2"/>
        <stop busStop="8170794617" duration="30.00"/>
    </vehicle>

    <vehicle id="6_subway_U5:1" type="pt_subway" depart="133.00" departLane="0" arrival="295.00">
        <route edges="942849697 71326270"/>
        <stop busStop="7974928190" duration="30.00"/>
        <stop busStop="8090274121" duration="30.00"/>
    </vehicle>

    <vehicle id="5_subway_U5:0" type="pt_subway" depart="131.00" departLane="0" arrival="300.00">
        <route edges="942849696 942849695"/>
        <stop busStop="8087330616" duration="30.00"/>
        <stop busStop="7974955393" duration="30.00"/>
    </vehicle>

    <vehicle id="0_bus_100:0" type="pt_bus" depart="15.00" departLane="1" arrival="304.00">
        <route edges="751602168 169195795#0 169195795#1 169195795#4 169195795#5 169195795#6 169195795#8 882389494 340498988#0 188386313#1 188386313#2 24913304#1"/>
        <stop busStop="271296293" duration="30.00"/>
        <stop busStop="272408975" duration="30.00"/>
        <stop busStop="271373068" duration="30.00"/>
    </vehicle>

    <vehicle id="8_subway_U6:1" type="pt_subway" depart="253.00" departLane="0" arrival="315.00">
        <route edges="335043673#0 335043673#1 335043673#2"/>
        <stop busStop="8170769020" duration="30.00"/>
    </vehicle>

    <vehicle id="10_bus_147:0" type="pt_bus" depart="383.00" departLane="1" arrival="455.00">
        <route edges="11483007#0 -169999355#2 -194069450#1"/>
        <stop busStop="-9023382186" duration="30.00"/>
    </vehicle>

    <vehicle id="11_bus_147:1" type="pt_bus" depart="406.00" departLane="1" arrival="509.00">
        <route edges="194069450#0 169999355#0 -11483007#2"/>
        <stop busStop="9023382187" duration="30.00"/>
    </vehicle>

    <vehicle id="12_bus_300:0" type="pt_bus" depart="441.00" departLane="1" arrival="661.00">
        <route edges="751602168 169195795#0 169195795#1 169195795#4 169195795#5 169195795#6 169195795#8 882389494 340498988#0 188386313#1 188386313#2 24913267#1 24913267#3"/>
        <stop busStop="271296293" duration="30.00"/>
        <stop busStop="272408975" duration="30.00"/>
    </vehicle>

    <vehicle id="13_bus_300:1" type="pt_bus" depart="535.00" departLane="1" arrival="747.00">
        <route edges="-24913267#3 -24913267#2 342968607#1 461526152#0 340498982#0 340498982#2 340498982#3 340498982#4 340498982#7 340498982#8 354528932#0 354528932#1"/>
        <stop busStop="3869306771" duration="30.00"/>
        <stop busStop="3870475228" duration="30.00"/>
    </vehicle>

</routes>
